<?xml version="1.0" encoding="UTF-8"?>

<!-- generated on 05/16/20 11:46:55 by Eclipse SUMO GUI Version 1.2.0
<configuration xmlns:xsi="http://www.w3.org/2001/XMLSchema-instance" xsi:noNamespaceSchemaLocation="http://sumo.dlr.de/xsd/sumoConfiguration.xsd">

    <input>
        <net-file value="..\sim_conf\v2.net.xml"/>
        <route-files value="..\sim_conf\sim0.rou.xml"/>
    </input>

    <output>
        <netstate-dump value="..\sim_conf\virtualtraffic"/>
    </output>

    <time>
        <begin value="0"/>
        <end value="3600"/>
        <step-length value="0.1"/>
    </time>

    <processing>
        <collision.action value="remove"/>
        <collision.mingap-factor value="4"/>
        <time-to-teleport value="-1"/>
    </processing>

    <report>
        <xml-validation value="never"/>
        <no-warnings value="true"/>
        <duration-log.disable value="true"/>
        <no-step-log value="true"/>
    </report>

    <random_number>
        <random value="true"/>
    </random_number>

    <gui_only>
        <gui-settings-file value="..\sim_conf\gui.xml"/>
        <quit-on-end value="true"/>
        <start value="true"/>
        <tracker-interval value="0.1"/>
    </gui_only>

</configuration>
-->

<netstate xmlns:xsi="http://www.w3.org/2001/XMLSchema-instance" xsi:noNamespaceSchemaLocation="http://sumo.dlr.de/xsd/netstate_file.xsd">
    <timestep time="0.00">
        <edge id="A">
            <lane id="A_0">
                <vehicle id="carflow2.0" pos="5.10" speed="0.00"/>
            </lane>
            <lane id="A_1"/>
            <lane id="A_2">
                <vehicle id="carflow1.0" pos="5.30" speed="0.00"/>
            </lane>
        </edge>
    </timestep>
    <timestep time="0.10">
        <edge id="A">
            <lane id="A_0">
                <vehicle id="carflow2.0" pos="5.15" speed="0.48"/>
            </lane>
            <lane id="A_1"/>
            <lane id="A_2">
                <vehicle id="carflow1.0" pos="5.35" speed="0.48"/>
            </lane>
        </edge>
    </timestep>
    <timestep time="0.20">
        <edge id="A">
            <lane id="A_0">
                <vehicle id="carflow2.0" pos="5.24" speed="0.93"/>
            </lane>
            <lane id="A_1"/>
            <lane id="A_2">
                <vehicle id="carflow1.0" pos="5.44" speed="0.93"/>
            </lane>
        </edge>
    </timestep>
    <timestep time="0.30">
        <edge id="A">
            <lane id="A_0">
                <vehicle id="carflow2.0" pos="5.38" speed="1.37"/>
            </lane>
            <lane id="A_1"/>
            <lane id="A_2">
                <vehicle id="carflow1.0" pos="5.58" speed="1.37"/>
            </lane>
        </edge>
    </timestep>
    <timestep time="0.40">
        <edge id="A">
            <lane id="A_0">
                <vehicle id="carflow2.0" pos="5.56" speed="1.77"/>
            </lane>
            <lane id="A_1"/>
            <lane id="A_2">
                <vehicle id="carflow1.0" pos="5.76" speed="1.77"/>
            </lane>
        </edge>
    </timestep>
    <timestep time="0.50">
        <edge id="A">
            <lane id="A_0">
                <vehicle id="carflow2.0" pos="5.78" speed="2.26"/>
            </lane>
            <lane id="A_1"/>
            <lane id="A_2">
                <vehicle id="carflow1.0" pos="5.98" speed="2.26"/>
            </lane>
        </edge>
    </timestep>
    <timestep time="0.60">
        <edge id="A">
            <lane id="A_0">
                <vehicle id="carflow2.0" pos="6.05" speed="2.71"/>
            </lane>
            <lane id="A_1"/>
            <lane id="A_2">
                <vehicle id="carflow1.0" pos="6.25" speed="2.71"/>
            </lane>
        </edge>
    </timestep>
    <timestep time="0.70">
        <edge id="A">
            <lane id="A_0">
                <vehicle id="carflow2.0" pos="6.36" speed="3.04"/>
            </lane>
            <lane id="A_1"/>
            <lane id="A_2">
                <vehicle id="carflow1.0" pos="6.56" speed="3.04"/>
            </lane>
        </edge>
    </timestep>
    <timestep time="0.80">
        <edge id="A">
            <lane id="A_0">
                <vehicle id="carflow2.0" pos="6.69" speed="3.32"/>
            </lane>
            <lane id="A_1"/>
            <lane id="A_2">
                <vehicle id="carflow1.0" pos="6.89" speed="3.32"/>
            </lane>
        </edge>
    </timestep>
    <timestep time="0.90">
        <edge id="A">
            <lane id="A_0">
                <vehicle id="carflow2.0" pos="7.04" speed="3.51"/>
            </lane>
            <lane id="A_1"/>
            <lane id="A_2">
                <vehicle id="carflow1.0" pos="7.24" speed="3.51"/>
            </lane>
        </edge>
    </timestep>
    <timestep time="1.00">
        <edge id="A">
            <lane id="A_0">
                <vehicle id="carflow2.0" pos="7.44" speed="3.98"/>
            </lane>
            <lane id="A_1"/>
            <lane id="A_2">
                <vehicle id="carflow1.0" pos="7.64" speed="3.98"/>
            </lane>
        </edge>
    </timestep>
    <timestep time="1.10">
        <edge id="A">
            <lane id="A_0">
                <vehicle id="carflow2.0" pos="7.86" speed="4.19"/>
            </lane>
            <lane id="A_1"/>
            <lane id="A_2">
                <vehicle id="carflow1.0" pos="8.06" speed="4.19"/>
            </lane>
        </edge>
    </timestep>
    <timestep time="1.20">
        <edge id="A">
            <lane id="A_0">
                <vehicle id="carflow2.0" pos="8.31" speed="4.58"/>
            </lane>
            <lane id="A_1"/>
            <lane id="A_2">
                <vehicle id="carflow1.0" pos="8.51" speed="4.58"/>
            </lane>
        </edge>
    </timestep>
    <timestep time="1.30">
        <edge id="A">
            <lane id="A_0">
                <vehicle id="carflow2.0" pos="8.80" speed="4.85"/>
            </lane>
            <lane id="A_1"/>
            <lane id="A_2">
                <vehicle id="carflow1.0" pos="9.00" speed="4.85"/>
            </lane>
        </edge>
    </timestep>
    <timestep time="1.40">
        <edge id="A">
            <lane id="A_0">
                <vehicle id="carflow2.0" pos="9.29" speed="4.89"/>
            </lane>
            <lane id="A_1"/>
            <lane id="A_2">
                <vehicle id="carflow1.0" pos="9.49" speed="4.89"/>
            </lane>
        </edge>
    </timestep>
    <timestep time="1.50">
        <edge id="A">
            <lane id="A_0">
                <vehicle id="carflow2.0" pos="9.83" speed="5.38"/>
            </lane>
            <lane id="A_1"/>
            <lane id="A_2">
                <vehicle id="carflow1.0" pos="10.03" speed="5.38"/>
            </lane>
        </edge>
    </timestep>
    <timestep time="1.60">
        <edge id="A">
            <lane id="A_0">
                <vehicle id="carflow2.0" pos="10.37" speed="5.40"/>
            </lane>
            <lane id="A_1"/>
            <lane id="A_2">
                <vehicle id="carflow1.0" pos="10.57" speed="5.40"/>
            </lane>
        </edge>
    </timestep>
    <timestep time="1.70">
        <edge id="A">
            <lane id="A_0">
                <vehicle id="carflow2.0" pos="10.94" speed="5.75"/>
            </lane>
            <lane id="A_1">
                <vehicle id="carflow1.1" pos="4.60" speed="0.00"/>
            </lane>
            <lane id="A_2">
                <vehicle id="carflow1.0" pos="11.14" speed="5.75"/>
            </lane>
        </edge>
    </timestep>
    <timestep time="1.80">
        <edge id="A">
            <lane id="A_0">
                <vehicle id="carflow2.0" pos="11.54" speed="5.99"/>
            </lane>
            <lane id="A_1">
                <vehicle id="carflow1.1" pos="4.65" speed="0.48"/>
            </lane>
            <lane id="A_2">
                <vehicle id="carflow1.0" pos="11.74" speed="5.99"/>
            </lane>
        </edge>
    </timestep>
    <timestep time="1.90">
        <edge id="A">
            <lane id="A_0">
                <vehicle id="carflow2.0" pos="12.15" speed="6.14"/>
            </lane>
            <lane id="A_1">
                <vehicle id="carflow1.1" pos="4.74" speed="0.93"/>
            </lane>
            <lane id="A_2">
                <vehicle id="carflow1.0" pos="12.35" speed="6.14"/>
            </lane>
        </edge>
    </timestep>
    <timestep time="2.00">
        <edge id="A">
            <lane id="A_0">
                <vehicle id="carflow2.0" pos="12.78" speed="6.21"/>
            </lane>
            <lane id="A_1">
                <vehicle id="carflow1.1" pos="4.88" speed="1.37"/>
            </lane>
            <lane id="A_2">
                <vehicle id="carflow1.0" pos="12.98" speed="6.21"/>
            </lane>
        </edge>
    </timestep>
    <timestep time="2.10">
        <edge id="A">
            <lane id="A_0">
                <vehicle id="carflow2.0" pos="13.44" speed="6.64"/>
            </lane>
            <lane id="A_1">
                <vehicle id="carflow1.1" pos="5.06" speed="1.77"/>
            </lane>
            <lane id="A_2">
                <vehicle id="carflow1.0" pos="13.64" speed="6.64"/>
            </lane>
        </edge>
    </timestep>
    <timestep time="2.20">
        <edge id="A">
            <lane id="A_0">
                <vehicle id="carflow2.0" pos="14.12" speed="6.78"/>
            </lane>
            <lane id="A_1">
                <vehicle id="carflow1.1" pos="5.28" speed="2.26"/>
            </lane>
            <lane id="A_2">
                <vehicle id="carflow1.0" pos="14.32" speed="6.78"/>
            </lane>
        </edge>
    </timestep>
    <timestep time="2.30">
        <edge id="A">
            <lane id="A_0">
                <vehicle id="carflow2.0" pos="14.81" speed="6.96"/>
            </lane>
            <lane id="A_1">
                <vehicle id="carflow1.1" pos="5.55" speed="2.71"/>
            </lane>
            <lane id="A_2">
                <vehicle id="carflow1.0" pos="15.01" speed="6.96"/>
            </lane>
        </edge>
    </timestep>
    <timestep time="2.40">
        <edge id="A">
            <lane id="A_0">
                <vehicle id="carflow2.0" pos="15.53" speed="7.14"/>
            </lane>
            <lane id="A_1">
                <vehicle id="carflow1.1" pos="5.86" speed="3.04"/>
            </lane>
            <lane id="A_2">
                <vehicle id="carflow1.0" pos="15.73" speed="7.14"/>
            </lane>
        </edge>
    </timestep>
    <timestep time="2.50">
        <edge id="A">
            <lane id="A_0">
                <vehicle id="carflow2.0" pos="16.25" speed="7.25"/>
            </lane>
            <lane id="A_1">
                <vehicle id="carflow1.1" pos="6.19" speed="3.32"/>
            </lane>
            <lane id="A_2">
                <vehicle id="carflow1.0" pos="16.45" speed="7.25"/>
            </lane>
        </edge>
    </timestep>
    <timestep time="2.60">
        <edge id="A">
            <lane id="A_0">
                <vehicle id="carflow2.0" pos="16.99" speed="7.39"/>
            </lane>
            <lane id="A_1">
                <vehicle id="carflow1.1" pos="6.54" speed="3.51"/>
            </lane>
            <lane id="A_2">
                <vehicle id="carflow1.0" pos="17.19" speed="7.39"/>
            </lane>
        </edge>
    </timestep>
    <timestep time="2.70">
        <edge id="A">
            <lane id="A_0">
                <vehicle id="carflow2.0" pos="17.76" speed="7.65"/>
            </lane>
            <lane id="A_1">
                <vehicle id="carflow1.1" pos="6.94" speed="3.98"/>
            </lane>
            <lane id="A_2">
                <vehicle id="carflow1.0" pos="17.96" speed="7.65"/>
            </lane>
        </edge>
    </timestep>
    <timestep time="2.80">
        <edge id="A">
            <lane id="A_0"/>
            <lane id="A_1">
                <vehicle id="carflow1.1" pos="7.36" speed="4.19"/>
            </lane>
            <lane id="A_2">
                <vehicle id="carflow1.0" pos="18.77" speed="8.12"/>
            </lane>
        </edge>
    </timestep>
    <timestep time="2.90">
        <edge id="A">
            <lane id="A_0"/>
            <lane id="A_1">
                <vehicle id="carflow1.1" pos="7.81" speed="4.58"/>
            </lane>
            <lane id="A_2">
                <vehicle id="carflow1.0" pos="19.59" speed="8.21"/>
            </lane>
        </edge>
    </timestep>
    <timestep time="3.00">
        <edge id="A">
            <lane id="A_0"/>
            <lane id="A_1">
                <vehicle id="carflow1.1" pos="8.30" speed="4.85"/>
            </lane>
            <lane id="A_2">
                <vehicle id="carflow1.0" pos="20.45" speed="8.64"/>
            </lane>
        </edge>
    </timestep>
    <timestep time="3.10">
        <edge id="A">
            <lane id="A_0"/>
            <lane id="A_1">
                <vehicle id="carflow1.1" pos="8.79" speed="4.89"/>
            </lane>
            <lane id="A_2">
                <vehicle id="carflow1.0" pos="21.32" speed="8.70"/>
            </lane>
        </edge>
    </timestep>
    <timestep time="3.20">
        <edge id="A">
            <lane id="A_0"/>
            <lane id="A_1">
                <vehicle id="carflow1.1" pos="9.33" speed="5.38"/>
            </lane>
            <lane id="A_2">
                <vehicle id="carflow1.0" pos="22.24" speed="9.16"/>
            </lane>
        </edge>
    </timestep>
    <timestep time="3.30">
        <edge id="A">
            <lane id="A_0"/>
            <lane id="A_1">
                <vehicle id="carflow1.1" pos="9.87" speed="5.40"/>
            </lane>
            <lane id="A_2">
                <vehicle id="carflow1.0" pos="23.18" speed="9.38"/>
            </lane>
        </edge>
    </timestep>
    <timestep time="3.40">
        <edge id="A">
            <lane id="A_0"/>
            <lane id="A_1">
                <vehicle id="carflow1.1" pos="10.44" speed="5.75"/>
            </lane>
            <lane id="A_2">
                <vehicle id="carflow1.0" pos="24.15" speed="9.73"/>
            </lane>
        </edge>
    </timestep>
    <timestep time="3.50">
        <edge id="A">
            <lane id="A_0"/>
            <lane id="A_1">
                <vehicle id="carflow1.1" pos="11.04" speed="5.99"/>
            </lane>
            <lane id="A_2">
                <vehicle id="carflow1.0" pos="25.14" speed="9.92"/>
            </lane>
        </edge>
    </timestep>
    <timestep time="3.60">
        <edge id="A">
            <lane id="A_0">
                <vehicle id="carflow2.1" pos="5.10" speed="0.00"/>
            </lane>
            <lane id="A_1">
                <vehicle id="carflow1.1" pos="11.65" speed="6.14"/>
            </lane>
            <lane id="A_2">
                <vehicle id="carflow1.0" pos="26.17" speed="10.28"/>
            </lane>
        </edge>
    </timestep>
    <timestep time="3.70">
        <edge id="A">
            <lane id="A_0">
                <vehicle id="carflow2.1" pos="5.15" speed="0.46"/>
            </lane>
            <lane id="A_1">
                <vehicle id="carflow1.1" pos="12.28" speed="6.21"/>
            </lane>
            <lane id="A_2">
                <vehicle id="carflow1.0" pos="27.23" speed="10.64"/>
            </lane>
        </edge>
    </timestep>
    <timestep time="3.80">
        <edge id="A">
            <lane id="A_0">
                <vehicle id="carflow2.1" pos="5.24" speed="0.94"/>
            </lane>
            <lane id="A_1">
                <vehicle id="carflow1.1" pos="12.94" speed="6.64"/>
            </lane>
            <lane id="A_2">
                <vehicle id="carflow1.0" pos="28.34" speed="11.09"/>
            </lane>
        </edge>
    </timestep>
    <timestep time="3.90">
        <edge id="A">
            <lane id="A_0">
                <vehicle id="carflow2.1" pos="5.37" speed="1.32"/>
            </lane>
            <lane id="A_1">
                <vehicle id="carflow1.1" pos="13.62" speed="6.78"/>
            </lane>
            <lane id="A_2">
                <vehicle id="carflow1.0" pos="29.47" speed="11.29"/>
            </lane>
        </edge>
    </timestep>
    <timestep time="4.00">
        <edge id="A">
            <lane id="A_0">
                <vehicle id="carflow2.1" pos="5.55" speed="1.80"/>
            </lane>
            <lane id="A_1">
                <vehicle id="carflow1.1" pos="14.31" speed="6.96"/>
            </lane>
            <lane id="A_2">
                <vehicle id="carflow1.0" pos="30.64" speed="11.63"/>
            </lane>
        </edge>
    </timestep>
    <timestep time="4.10">
        <edge id="A">
            <lane id="A_0">
                <vehicle id="carflow2.1" pos="5.77" speed="2.17"/>
            </lane>
            <lane id="A_1">
                <vehicle id="carflow1.1" pos="15.03" speed="7.14"/>
            </lane>
            <lane id="A_2">
                <vehicle id="carflow1.0" pos="31.84" speed="12.02"/>
            </lane>
        </edge>
    </timestep>
    <timestep time="4.20">
        <edge id="A">
            <lane id="A_0">
                <vehicle id="carflow2.1" pos="6.03" speed="2.59"/>
            </lane>
            <lane id="A_1">
                <vehicle id="carflow1.1" pos="15.75" speed="7.25"/>
            </lane>
            <lane id="A_2">
                <vehicle id="carflow1.0" pos="33.06" speed="12.24"/>
            </lane>
        </edge>
    </timestep>
    <timestep time="4.30">
        <edge id="A">
            <lane id="A_0">
                <vehicle id="carflow2.1" pos="6.32" speed="2.91"/>
            </lane>
            <lane id="A_1">
                <vehicle id="carflow1.1" pos="16.49" speed="7.39"/>
            </lane>
            <lane id="A_2">
                <vehicle id="carflow1.3" pos="4.60" speed="0.00"/>
                <vehicle id="carflow1.0" pos="34.32" speed="12.61"/>
            </lane>
        </edge>
    </timestep>
    <timestep time="4.40">
        <edge id="A">
            <lane id="A_0">
                <vehicle id="carflow2.1" pos="6.65" speed="3.31"/>
            </lane>
            <lane id="A_1">
                <vehicle id="carflow1.1" pos="17.26" speed="7.65"/>
            </lane>
            <lane id="A_2">
                <vehicle id="carflow1.3" pos="4.65" speed="0.46"/>
                <vehicle id="carflow1.0" pos="35.63" speed="13.05"/>
            </lane>
        </edge>
    </timestep>
    <timestep time="4.50">
        <edge id="A">
            <lane id="A_0">
                <vehicle id="carflow2.1" pos="7.02" speed="3.70"/>
            </lane>
            <lane id="A_1">
                <vehicle id="carflow1.1" pos="18.07" speed="8.12"/>
            </lane>
            <lane id="A_2">
                <vehicle id="carflow1.3" pos="4.73" speed="0.88"/>
                <vehicle id="carflow1.0" pos="36.95" speed="13.23"/>
            </lane>
        </edge>
    </timestep>
    <timestep time="4.60">
        <edge id="A">
            <lane id="A_0">
                <vehicle id="carflow2.1" pos="7.44" speed="4.16"/>
            </lane>
            <lane id="A_1">
                <vehicle id="carflow1.1" pos="18.89" speed="8.21"/>
            </lane>
            <lane id="A_2">
                <vehicle id="carflow1.3" pos="4.87" speed="1.31"/>
                <vehicle id="carflow1.0" pos="38.31" speed="13.56"/>
            </lane>
        </edge>
    </timestep>
    <timestep time="4.70">
        <edge id="A">
            <lane id="A_0">
                <vehicle id="carflow2.1" pos="7.88" speed="4.38"/>
            </lane>
            <lane id="A_1">
                <vehicle id="carflow1.1" pos="19.75" speed="8.64"/>
            </lane>
            <lane id="A_2">
                <vehicle id="carflow1.3" pos="5.04" speed="1.71"/>
                <vehicle id="carflow1.0" pos="39.69" speed="13.85"/>
            </lane>
        </edge>
    </timestep>
    <timestep time="4.80">
        <edge id="A">
            <lane id="A_0">
                <vehicle id="carflow2.1" pos="8.35" speed="4.73"/>
            </lane>
            <lane id="A_1">
                <vehicle id="carflow1.1" pos="20.62" speed="8.70"/>
            </lane>
            <lane id="A_2">
                <vehicle id="carflow1.3" pos="5.25" speed="2.16"/>
                <vehicle id="carflow1.0" pos="41.09" speed="13.92"/>
            </lane>
        </edge>
    </timestep>
    <timestep time="4.90">
        <edge id="A">
            <lane id="A_0">
                <vehicle id="carflow2.1" pos="8.86" speed="5.12"/>
            </lane>
            <lane id="A_1">
                <vehicle id="carflow1.1" pos="21.54" speed="9.16"/>
            </lane>
            <lane id="A_2">
                <vehicle id="carflow1.3" pos="5.50" speed="2.48"/>
                <vehicle id="carflow1.0" pos="42.49" speed="14.04"/>
            </lane>
        </edge>
    </timestep>
    <timestep time="5.00">
        <edge id="A">
            <lane id="A_0">
                <vehicle id="carflow2.1" pos="9.39" speed="5.33"/>
            </lane>
            <lane id="A_1">
                <vehicle id="carflow1.1" pos="22.48" speed="9.38"/>
            </lane>
            <lane id="A_2">
                <vehicle id="carflow1.3" pos="5.78" speed="2.82"/>
                <vehicle id="carflow1.0" pos="43.90" speed="14.12"/>
            </lane>
        </edge>
    </timestep>
    <timestep time="5.10">
        <edge id="A">
            <lane id="A_0">
                <vehicle id="carflow2.1" pos="9.96" speed="5.70"/>
            </lane>
            <lane id="A_1">
                <vehicle id="carflow1.1" pos="23.45" speed="9.73"/>
            </lane>
            <lane id="A_2">
                <vehicle id="carflow1.3" pos="6.08" speed="3.02"/>
                <vehicle id="carflow1.0" pos="45.36" speed="14.55"/>
            </lane>
        </edge>
    </timestep>
    <timestep time="5.20">
        <edge id="A">
            <lane id="A_0">
                <vehicle id="carflow2.1" pos="10.58" speed="6.15"/>
            </lane>
            <lane id="A_1">
                <vehicle id="carflow1.1" pos="24.44" speed="9.92"/>
            </lane>
            <lane id="A_2">
                <vehicle id="carflow1.3" pos="6.42" speed="3.39"/>
                <vehicle id="carflow1.0" pos="46.81" speed="14.57"/>
            </lane>
        </edge>
    </timestep>
    <timestep time="5.30">
        <edge id="A">
            <lane id="A_0">
                <vehicle id="carflow2.1" pos="11.20" speed="6.22"/>
            </lane>
            <lane id="A_1">
                <vehicle id="carflow1.1" pos="25.47" speed="10.28"/>
            </lane>
            <lane id="A_2">
                <vehicle id="carflow1.3" pos="6.81" speed="3.86"/>
                <vehicle id="carflow1.0" pos="48.27" speed="14.60"/>
            </lane>
        </edge>
    </timestep>
    <timestep time="5.40">
        <edge id="A">
            <lane id="A_0">
                <vehicle id="carflow2.1" pos="11.84" speed="6.40"/>
            </lane>
            <lane id="A_1">
                <vehicle id="carflow1.1" pos="26.53" speed="10.64"/>
            </lane>
            <lane id="A_2">
                <vehicle id="carflow1.3" pos="7.22" speed="4.09"/>
                <vehicle id="carflow1.0" pos="49.78" speed="15.07"/>
            </lane>
        </edge>
    </timestep>
    <timestep time="5.50">
        <edge id="A">
            <lane id="A_0">
                <vehicle id="carflow2.1" pos="12.49" speed="6.52"/>
            </lane>
            <lane id="A_1">
                <vehicle id="carflow1.1" pos="27.64" speed="11.09"/>
            </lane>
            <lane id="A_2">
                <vehicle id="carflow1.3" pos="7.65" speed="4.37"/>
                <vehicle id="carflow1.0" pos="51.34" speed="15.55"/>
            </lane>
        </edge>
    </timestep>
    <timestep time="5.60">
        <edge id="A">
            <lane id="A_0">
                <vehicle id="carflow2.1" pos="13.18" speed="6.85"/>
            </lane>
            <lane id="A_1">
                <vehicle id="carflow1.1" pos="28.77" speed="11.29"/>
            </lane>
            <lane id="A_2">
                <vehicle id="carflow1.3" pos="8.09" speed="4.40"/>
                <vehicle id="carflow1.0" pos="52.89" speed="15.57"/>
            </lane>
        </edge>
    </timestep>
    <timestep time="5.70">
        <edge id="A">
            <lane id="A_0"/>
            <lane id="A_1">
                <vehicle id="carflow1.1" pos="29.94" speed="11.63"/>
            </lane>
            <lane id="A_2">
                <vehicle id="carflow1.3" pos="8.55" speed="4.53"/>
                <vehicle id="carflow1.0" pos="54.47" speed="15.80"/>
            </lane>
        </edge>
    </timestep>
    <timestep time="5.80">
        <edge id="A">
            <lane id="A_0"/>
            <lane id="A_1">
                <vehicle id="carflow1.1" pos="31.14" speed="12.02"/>
            </lane>
            <lane id="A_2">
                <vehicle id="carflow1.3" pos="9.02" speed="4.72"/>
                <vehicle id="carflow1.0" pos="56.06" speed="15.91"/>
            </lane>
        </edge>
    </timestep>
    <timestep time="5.90">
        <edge id="A">
            <lane id="A_0"/>
            <lane id="A_1">
                <vehicle id="carflow1.1" pos="32.36" speed="12.24"/>
            </lane>
            <lane id="A_2">
                <vehicle id="carflow1.3" pos="9.51" speed="4.92"/>
                <vehicle id="carflow1.0" pos="57.66" speed="15.94"/>
            </lane>
        </edge>
    </timestep>
    <timestep time="6.00">
        <edge id="A">
            <lane id="A_0"/>
            <lane id="A_1">
                <vehicle id="carflow1.1" pos="33.62" speed="12.61"/>
            </lane>
            <lane id="A_2">
                <vehicle id="carflow1.3" pos="10.02" speed="5.10"/>
                <vehicle id="carflow1.0" pos="59.29" speed="16.36"/>
            </lane>
        </edge>
    </timestep>
    <timestep time="6.10">
        <edge id="A">
            <lane id="A_0"/>
            <lane id="A_1">
                <vehicle id="carflow1.1" pos="34.93" speed="13.05"/>
            </lane>
            <lane id="A_2">
                <vehicle id="carflow1.3" pos="10.56" speed="5.36"/>
                <vehicle id="carflow1.0" pos="60.97" speed="16.71"/>
            </lane>
        </edge>
    </timestep>
    <timestep time="6.20">
        <edge id="A">
            <lane id="A_0"/>
            <lane id="A_1">
                <vehicle id="carflow1.1" pos="36.24" speed="13.13"/>
            </lane>
            <lane id="A_2">
                <vehicle id="carflow1.3" pos="11.10" speed="5.39"/>
                <vehicle id="carflow1.0" pos="62.66" speed="16.94"/>
            </lane>
        </edge>
    </timestep>
    <timestep time="6.30">
        <edge id="A">
            <lane id="A_0"/>
            <lane id="A_1">
                <vehicle id="carflow1.1" pos="37.57" speed="13.31"/>
            </lane>
            <lane id="A_2">
                <vehicle id="carflow1.3" pos="11.65" speed="5.55"/>
                <vehicle id="carflow1.0" pos="64.35" speed="16.95"/>
            </lane>
        </edge>
    </timestep>
    <timestep time="6.40">
        <edge id="A">
            <lane id="A_0"/>
            <lane id="A_1">
                <vehicle id="carflow1.1" pos="38.91" speed="13.42"/>
            </lane>
            <lane id="A_2">
                <vehicle id="carflow1.3" pos="12.22" speed="5.68"/>
                <vehicle id="carflow1.0" pos="66.07" speed="17.19"/>
            </lane>
        </edge>
    </timestep>
    <timestep time="6.50">
        <edge id="A">
            <lane id="A_0"/>
            <lane id="A_1">
                <vehicle id="carflow1.1" pos="40.29" speed="13.75"/>
            </lane>
            <lane id="A_2">
                <vehicle id="carflow1.3" pos="12.81" speed="5.94"/>
                <vehicle id="carflow1.0" pos="67.83" speed="17.60"/>
            </lane>
        </edge>
    </timestep>
    <timestep time="6.60">
        <edge id="A">
            <lane id="A_0"/>
            <lane id="A_1">
                <vehicle id="carflow1.1" pos="41.69" speed="13.98"/>
            </lane>
            <lane id="A_2">
                <vehicle id="carflow1.3" pos="13.42" speed="6.01"/>
                <vehicle id="carflow1.0" pos="69.62" speed="17.87"/>
            </lane>
        </edge>
    </timestep>
    <timestep time="6.70">
        <edge id="A">
            <lane id="A_0"/>
            <lane id="A_1">
                <vehicle id="carflow1.1" pos="43.12" speed="14.27"/>
            </lane>
            <lane id="A_2">
                <vehicle id="carflow1.3" pos="14.03" speed="6.15"/>
                <vehicle id="carflow1.0" pos="71.44" speed="18.16"/>
            </lane>
        </edge>
    </timestep>
    <timestep time="6.80">
        <edge id="A">
            <lane id="A_0"/>
            <lane id="A_1">
                <vehicle id="carflow1.1" pos="44.56" speed="14.49"/>
            </lane>
            <lane id="A_2">
                <vehicle id="carflow1.3" pos="14.69" speed="6.60"/>
                <vehicle id="carflow1.0" pos="73.30" speed="18.65"/>
            </lane>
        </edge>
    </timestep>
    <timestep time="6.90">
        <edge id="A">
            <lane id="A_0"/>
            <lane id="A_1">
                <vehicle id="carflow1.1" pos="46.02" speed="14.56"/>
            </lane>
            <lane id="A_2">
                <vehicle id="carflow1.3" pos="15.40" speed="7.10"/>
                <vehicle id="carflow1.0" pos="75.20" speed="18.98"/>
            </lane>
        </edge>
    </timestep>
    <timestep time="7.00">
        <edge id="A">
            <lane id="A_0"/>